# vtk DataFile Version 2.0
Generated by approxBySpheres tool
ASCII
DATASET POLYDATA
POINTS 20 float
6.86162 11.0583 7.12199
6.51748 5.89625 6.77786
4.45266 3.83143 4.3689
5.14094 14.8438 6.77786
5.14094 8.3052 4.3689
4.7968 17.941 8.15441
6.86162 13.4672 10.5633
6.86162 2.45488 8.15441
3.07612 12.0907 5.74545
5.14094 11.0583 3.3365
5.48508 13.1231 3.68063
5.48508 15.8762 9.87508
6.86162 7.96107 9.87508
3.07612 10.0259 5.74545
4.10853 6.58452 2.30408
6.86162 10.7141 11.2517
2.38784 6.58452 5.05717
6.51748 1.76661 6.08959
9.61472 7.96107 6.43372
6.86162 3.83143 9.87508
VERTICES 20 40
1 0
1 2
1 4
1 6
1 8
1 10
1 12
1 14
1 16
1 18
1 20
1 22
1 24
1 26
1 28
1 30
1 32
1 34
1 36
1 38
POINT_DATA 20
SCALARS radius float 1
LOOKUP_TABLE default
4.13899
3.62676
3.34366
3.24872
2.86802
2.71935
2.70593
2.11753
2.05991
2.0501
2.0392
2.03771
1.95906
1.931
1.90709
1.71582
1.70278
1.66361
1.65975
1.63891
