# vtk DataFile Version 2.0
Generated by approxBySpheres tool
ASCII
DATASET POLYDATA
POINTS 14 float
4.71384 12.8586 5.1895
5.01846 9.5077 4.58025
5.32309 15.6002 7.32189
5.32309 13.1632 8.84501
5.62772 10.4216 7.32189
4.71384 5.54755 3.66638
2.58145 11.0308 3.05712
2.27682 14.3818 3.36175
5.62772 16.5141 10.0635
3.19071 7.98456 2.75249
5.62772 7.37531 6.408
3.19071 15.9049 4.88487
5.62772 7.98456 8.5404
5.32309 9.5077 9.7589
VERTICES 14 28
1 0
1 2
1 4
1 6
1 8
1 10
1 12
1 14
1 16
1 18
1 20
1 22
1 24
1 26
POINT_DATA 14
SCALARS radius float 1
LOOKUP_TABLE default
3.6684
3.14403
3.12958
2.88007
2.82116
2.80321
2.74203
2.59843
2.53506
2.52542
2.34782
2.17944
2.08421
2.04501
