# vtk DataFile Version 2.0
Generated by approxBySpheres tool
ASCII
DATASET POLYDATA
POINTS 14 float
8.38538 12.6708 5.42371
7.79643 9.13706 4.83475
7.50194 5.60332 3.95132
7.79643 6.48675 6.8961
7.50194 3.54197 6.60162
7.79643 15.91 6.8961
10.4467 15.6156 6.30714
8.97433 9.13706 8.07401
7.50194 2.65854 3.95132
6.32404 11.1984 2.7734
10.7411 13.8486 8.07401
6.61851 15.3211 3.65685
8.97433 5.60332 9.5464
10.1522 11.4929 2.47893
VERTICES 14 28
1 0
1 2
1 4
1 6
1 8
1 10
1 12
1 14
1 16
1 18
1 20
1 22
1 24
1 26
POINT_DATA 14
SCALARS radius float 1
LOOKUP_TABLE default
4.23851
3.83493
3.43189
3.42989
3.0848
2.89891
2.83224
2.70451
2.6777
2.50072
2.12625
2.12406
2.05459
2.00864
