  LIGGGHTS Description 
 
           8  atoms 
 
           3  atom types
           0  bond types
           0  angle types
           
0.0 0.06 xlo xhi
0.0 0.065 ylo yhi
-0.02 0.02 zlo zhi
 
   Atoms
 
1 1 0.02 2500 0.01 0.044641016 0
2 1 0.02 2500 0.03 0.044641016 0
3 1 0.02 2500 0.05 0.044641016 0
4 2 0.02 2500 0.01 0.01 0
5 2 0.02 2500 0.03 0.01 0
6 2 0.02 2500 0.05 0.01 0
7 3 0.02 2500 0.04 0.027320508 0
8 3 0.02 2500 0.02 0.027320508 0


